49
Time step: 0
C 3.05604 2.66132 0.0
C 10.1751 5.02125 0.0
C 17.4291 2.40707 0.0
C 24.4599 5.01837 0.0
C 31.4241 2.23445 0.0
C 38.4436 4.87646 0.0
C 45.5575 2.50149 0.0
C 4.32618 9.71594 0.0
C 11.4328 12.1126 0.0
C 18.4792 9.54372 0.0
C 25.5445 12.0596 0.0
C 32.6384 9.62522 0.0
C 39.7294 12.0686 0.0
C 46.8266 9.64395 0.0
C 3.02375 16.7737 0.0
C 10.0956 19.2713 0.0
C 17.1936 16.8486 0.0
C 24.3073 19.2246 0.0
C 31.3903 16.7582 0.0
C 38.4443 19.3054 0.0
C 45.5239 16.83 0.0
C 4.26827 23.9926 0.0
C 11.3522 26.4553 0.0
C 18.3683 23.8049 0.0
C 25.4284 26.3353 0.0
C 32.5267 23.9132 0.0
C 39.6826 26.3722 0.0
C 46.7686 23.9151 0.0
C 3.04437 31.2577 0.0
C 10.2845 33.5958 0.0
C 17.3202 30.9978 0.0
C 24.4063 33.4549 0.0
C 31.4321 30.8306 0.0
C 38.4508 33.4736 0.0
C 45.5475 31.047 0.0
C 4.55595 38.4366 0.0
C 11.6126 40.9772 0.0
C 18.515 38.0438 0.0
C 25.4911 40.7981 0.0
C 32.424 37.9374 0.0
C 39.9624 40.5534 0.0
C 47.062 38.1358 0.0
C 4.22655 45.5804 0.0
C 11.2925 48.0953 0.0
C 18.1554 45.0708 0.0
C 25.0215 48.0888 0.0
C 31.7929 44.8645 0.0
C 38.6994 47.7888 0.0
C 45.7728 45.2954 0.0
49
Time step: 1
C 6.65833 3.54687 0.0
C 7.00206 5.05834 0.0
C 16.1296 1.40189 0.0
C 23.3467 5.83904 0.0
C 31.9753 1.92573 0.0
C 41.5003 3.33715 0.0
C 43.8186 3.10967 0.0
C 4.7938 8.16849 0.0
C 9.92203 12.7179 0.0
C 21.9117 8.29583 0.0
C 22.089 10.7157 0.0
C 31.6743 10.2861 0.0
C 43.0127 12.7322 0.0
C 45.7501 10.9681 0.0
C 6.52081 17.177 0.0
C 6.86129 19.994 0.0
C 18.671 17.1137 0.0
C 20.9817 20.2246 0.0
C 34.809 17.6109 0.0
C 37.5667 19.692 0.0
C 42.3336 16.3963 0.0
C 8.03232 22.7762 0.0
C 9.96689 27.3842 0.0
C 21.6384 22.387 0.0
C 22.061 25.5074 0.0
C 33.3723 23.2154 0.0
C 40.9041 25.4414 0.0
C 43.2627 24.6105 0.0
C 1.60014 31.2488 0.0
C 9.29567 34.4464 0.0
C 16.3615 29.8547 0.0
C 25.5895 33.5056 0.0
C 32.5385 31.9781 0.0
C 35.3194 33.9587 0.0
C 49.2782 31.0532 0.0
C 5.709 37.4485 0.0
C 13.318 41.1146 0.0
C 17.5992 35.0929 0.0
C 29.3206 41.7136 0.0
C 31.2605 38.25 0.0
C 43.1324 41.0268 0.0
C 43.4505 38.915 0.0
C 3.83075 45.4514 0.0
C 15.1725 48.8968 0.0
C 17.415 44.2606 0.0
C 27.1386 48.2528 0.0
C 27.6752 42.9843 0.0
C 41.4382 47.7949 0.0
C 41.9057 44.7958 0.0
49
Time step: 2
C 9.00313 5.99861 0.0
C 5.01865 3.53741 0.0
C 16.785 48.8702 0.0
C 23.3065 7.50008 0.0
C 32.4789 1.641 0.0
C 40.6266 0.991561 0.0
C 45.9012 4.59414 0.0
C 5.2556 6.6651 0.0
C 8.53402 13.2779 0.0
C 24.0475 6.65221 0.0
C 18.9511 9.07397 0.0
C 30.7901 10.8923 0.0
C 46.0139 13.9026 0.0
C 44.7672 11.648 0.0
C 9.7345 17.6948 0.0
C 3.92133 20.5963 0.0
C 20.0409 17.3927 0.0
C 18.1935 21.6807 0.0
C 38.5135 18.3213 0.0
C 36.1969 20.1172 0.0
C 39.4031 15.9812 0.0
C 11.4555 21.5718 0.0
C 8.69514 28.2327 0.0
C 24.3718 20.5973 0.0
C 18.962 24.6629 0.0
C 34.1544 22.5677 0.0
C 38.8295 25.7401 0.0
C 43.2198 24.1027 0.0
C 3.2666 31.7 0.0
C 8.32946 35.2748 0.0
C 15.484 28.8123 0.0
C 26.6757 33.5522 0.0
C 33.8464 32.468 0.0
C 32.1513 34.97 0.0
C 49.7093 30.5999 0.0
C 6.82678 36.4919 0.0
C 14.8947 41.252 0.0
C 16.7571 32.3798 0.0
C 32.24 43.5558 0.0
C 30.1859 38.5544 0.0
C 45.7314 40.2513 0.0
C 40.4423 40.8608 0.0
C 3.46772 45.3332 0.0
C 16.8856 1.23724 0.0
C 16.7218 43.5102 0.0
C 29.0834 48.4009 0.0
C 24.4994 40.2401 0.0
C 43.9557 47.7064 0.0
C 38.3574 44.4176 0.0
49
Time step: 3
C 10.6086 8.61613 0.0
C 3.75637 2.03771 0.0
C 20.0937 47.1447 0.0
C 24.3312 6.64272 0.0
C 32.9743 1.34108 0.0
C 38.6487 48.4376 0.0
C 49.1008 6.27225 0.0
C 5.74156 4.97143 0.0
C 7.13717 13.8514 0.0
C 25.0935 7.58503 0.0
C 15.8307 7.36232 0.0
C 29.8994 11.5027 0.0
C 48.4147 15.1631 0.0
C 44.3958 12.2546 0.0
C 12.9825 18.2637 0.0
C 0.976471 21.188 0.0
C 21.4232 17.6988 0.0
C 14.9073 21.8779 0.0
C 42.4904 17.8589 0.0
C 35.0015 20.1148 0.0
C 36.4404 15.9687 0.0
C 14.9448 20.4488 0.0
C 7.41242 29.0897 0.0
C 27.0523 18.7548 0.0
C 16.2714 24.8891 0.0
C 34.5303 23.1241 0.0
C 35.7245 26.3968 0.0
C 44.1807 23.2312 0.0
C 5.52941 32.199 0.0
C 9.26293 34.6015 0.0
C 14.6697 27.8887 0.0
C 27.7786 33.6072 0.0
C 34.9528 31.9927 0.0
C 29.1061 37.2218 0.0
C 49.5654 30.1001 0.0
C 6.05609 37.0164 0.0
C 16.5675 41.4444 0.0
C 15.8421 29.5141 0.0
C 34.9275 45.958 0.0
C 29.158 38.5989 0.0
C 48.1731 39.2686 0.0
C 37.5464 43.0621 0.0
C 3.10212 45.2141 0.0
C 15.9619 2.76662 0.0
C 15.9391 42.7035 0.0
C 31.0558 48.5604 0.0
C 21.3288 37.4694 0.0
C 46.4795 47.61 0.0
C 35.058 43.4654 0.0
49
Time step: 4
C 12.1298 11.094 0.0
C 2.6011 0.69393 0.0
C 23.2261 45.5201 0.0
C 26.2123 6.70852 0.0
C 33.3495 0.817033 0.0
C 36.4324 46.13 0.0
C 2.13651 7.86254 0.0
C 6.16408 3.28883 0.0
C 5.81383 14.3952 0.0
C 25.1771 7.59234 0.0
C 12.8944 5.68943 0.0
C 29.0533 12.0809 0.0
C 0.670261 16.339 0.0
C 44.0631 12.8539 0.0
C 14.2383 19.7066 0.0
C 48.1796 21.7484 0.0
C 22.7358 17.9906 0.0
C 14.2674 16.7609 0.0
C 46.2338 17.3537 0.0
C 34.5361 18.731 0.0
C 33.6555 16.069 0.0
C 16.9364 21.9589 0.0
C 6.17836 30.0231 0.0
C 29.5922 17.0063 0.0
C 14.6798 27.7483 0.0
C 34.1751 25.3097 0.0
C 32.8263 26.7072 0.0
C 45.0946 22.4007 0.0
C 7.7194 32.5767 0.0
C 10.3999 33.7146 0.0
C 12.4066 25.5707 0.0
C 28.84 33.6982 0.0
C 35.9992 31.5415 0.0
C 26.696 39.0528 0.0
C 49.4323 29.6272 0.0
C 5.04572 37.7343 0.0
C 17.6513 42.0374 0.0
C 16.1071 27.3099 0.0
C 36.3508 49.5603 0.0
C 27.7759 39.0541 0.0
C 0.489037 38.3368 0.0
C 33.995 44.934 0.0
C 2.75429 45.1026 0.0
C 15.0625 4.25583 0.0
C 15.7018 41.5279 0.0
C 33.0586 48.9309 0.0
C 18.3217 34.8429 0.0
C 48.8734 47.5186 0.0
C 34.1623 41.359 0.0
49
Time step: 5
C 13.6916 13.5986 0.0
C 1.39684 49.2129 0.0
C 26.3831 43.8738 0.0
C 27.1014 7.85749 0.0
C 33.6504 0.605426 0.0
C 33.471 44.0479 0.0
C 5.19781 9.46438 0.0
C 6.57301 1.57973 0.0
C 4.46798 14.952 0.0
C 26.2709 6.52132 0.0
C 10.304 3.80732 0.0
C 28.2062 12.6749 0.0
C 2.92526 17.5177 0.0
C 43.7304 13.4639 0.0
C 12.7702 20.4868 0.0
C 47.3355 22.3674 0.0
C 24.0593 18.285 0.0
C 16.9388 12.3692 0.0
C 0.0348588 16.8484 0.0
C 34.5127 17.3162 0.0
C 32.6359 16.6593 0.0
C 18.3292 23.3928 0.0
C 5.00526 31.1729 0.0
C 29.9093 14.766 0.0
C 15.1659 30.123 0.0
C 31.8492 28.4124 0.0
C 31.8758 26.1181 0.0
C 44.0408 21.4963 0.0
C 9.67123 32.8917 0.0
C 11.7281 32.6817 0.0
C 9.30522 22.9221 0.0
C 29.9087 33.8016 0.0
C 37.0514 31.0825 0.0
C 25.4746 41.0853 0.0
C 49.2992 29.1507 0.0
C 3.80106 38.5078 0.0
C 17.8393 42.3814 0.0
C 15.1142 25.9142 0.0
C 38.0079 2.85182 0.0
C 25.2628 39.2626 0.0
C 3.0516 37.3419 0.0
C 30.4495 46.6339 0.0
C 2.37458 45.0243 0.0
C 13.7822 5.95775 0.0
C 16.3683 40.5961 0.0
C 35.3317 48.9302 0.0
C 15.2849 32.1796 0.0
C 1.37304 47.5321 0.0
C 33.5511 39.5757 0.0
49
Time step: 6
C 15.3532 16.1412 0.0
C 0.62883 46.9125 0.0
C 29.126 42.0838 0.0
C 27.1316 6.79041 0.0
C 34.7889 49.4659 0.0
C 30.7138 41.9324 0.0
C 8.29846 11.0892 0.0
C 7.05514 49.9362 0.0
C 3.53397 14.62 0.0
C 28.2513 7.67546 0.0
C 7.71856 1.81585 0.0
C 25.8961 12.4488 0.0
C 5.09557 18.3071 0.0
C 43.3942 14.0825 0.0
C 11.2736 21.2882 0.0
C 47.9211 22.9181 0.0
C 25.4007 18.5821 0.0
C 19.5639 7.91771 0.0
C 3.57263 17.6448 0.0
C 36.2174 16.9714 0.0
C 32.3276 16.5021 0.0
C 19.7191 24.8582 0.0
C 3.83113 32.3644 0.0
C 29.1967 12.9657 0.0
C 16.9082 30.5335 0.0
C 28.6999 29.6837 0.0
C 31.7088 27.3996 0.0
C 41.5345 20.653 0.0
C 10.1232 32.9028 0.0
C 12.9991 33.423 0.0
C 6.17682 20.2254 0.0
C 30.9918 33.9044 0.0
C 38.1145 30.6152 0.0
C 24.5135 41.5565 0.0
C 49.1659 28.668 0.0
C 3.84394 40.7608 0.0
C 17.1183 42.1909 0.0
C 13.8976 24.7615 0.0
C 39.6461 6.16627 0.0
C 22.5217 41.066 0.0
C 4.30661 34.8126 0.0
C 26.9779 48.3384 0.0
C 1.89008 45.366 0.0
C 12.3728 7.67616 0.0
C 17.9556 40.191 0.0
C 36.8305 49.8425 0.0
C 12.718 29.7143 0.0
C 3.53419 47.9792 0.0
C 32.9297 37.7841 0.0
49
Time step: 7
C 17.069 18.7655 0.0
C 49.4265 45.4236 0.0
C 25.5474 40.6241 0.0
C 29.5004 7.29189 0.0
C 35.7885 48.5357 0.0
C 34.1981 39.3134 0.0
C 11.5047 12.7511 0.0
C 7.98788 48.4366 0.0
C 3.9385 12.3066 0.0
C 27.9572 7.2801 0.0
C 4.4112 49.6251 0.0
C 22.8708 11.6017 0.0
C 9.06758 16.9615 0.0
C 43.0465 14.7218 0.0
C 9.74075 22.1354 0.0
C 48.5231 23.4882 0.0
C 26.7866 18.8864 0.0
C 22.2722 3.32348 0.0
C 4.48368 18.5974 0.0
C 37.8463 16.59 0.0
C 32.1333 16.3597 0.0
C 21.1477 26.3736 0.0
C 2.75602 34.3361 0.0
C 29.0944 11.7069 0.0
C 18.6672 30.5409 0.0
C 25.5332 30.8678 0.0
C 31.4558 28.8597 0.0
C 38.9482 19.7791 0.0
C 8.49146 33.0934 0.0
C 15.0195 34.9885 0.0
C 2.58512 21.4299 0.0
C 32.1457 34.1539 0.0
C 39.2113 30.1326 0.0
C 23.1495 41.9306 0.0
C 49.0295 28.1681 0.0
C 3.83086 42.9814 0.0
C 16.7538 40.9652 0.0
C 12.6223 23.5635 0.0
C 41.3362 9.58617 0.0
C 19.8292 42.8209 0.0
C 5.51862 31.5995 0.0
C 23.3951 0.0926824 0.0
C 2.75192 45.0866 0.0
C 10.91 9.4662 0.0
C 19.3085 40.8959 0.0
C 38.5533 0.538905 0.0
C 11.4354 26.5991 0.0
C 4.96459 48.155 0.0
C 32.2437 35.8058 0.0
49
Time step: 8
C 18.7636 21.3594 0.0
C 48.2823 44.2023 0.0
C 21.6298 39.6405 0.0
C 29.4194 8.10514 0.0
C 36.9639 47.7097 0.0
C 37.5974 36.6968 0.0
C 14.5912 14.3838 0.0
C 7.99235 46.7982 0.0
C 4.34055 10.0268 0.0
C 30.0856 6.64822 0.0
C 1.41573 49.7446 0.0
C 19.8879 10.7639 0.0
C 12.8301 15.0773 0.0
C 42.6917 15.3262 0.0
C 8.67367 23.1842 0.0
C 48.1999 24.4184 0.0
C 28.1586 19.1853 0.0
C 23.9639 47.7707 0.0
C 5.16709 18.612 0.0
C 39.4594 16.3241 0.0
C 31.9419 16.2176 0.0
C 22.5529 27.8866 0.0
C 1.94961 36.0347 0.0
C 28.9914 10.391 0.0
C 20.423 30.5434 0.0
C 22.3941 32.0283 0.0
C 31.2064 30.3153 0.0
C 36.3926 18.8103 0.0
C 6.81397 33.2308 0.0
C 17.0126 36.5359 0.0
C 0.409759 23.6825 0.0
C 33.4543 32.9447 0.0
C 40.2949 29.6557 0.0
C 21.7587 41.89 0.0
C 48.8948 27.658 0.0
C 4.67586 43.9228 0.0
C 16.2492 40.1157 0.0
C 11.4202 22.2705 0.0
C 43.0082 12.9948 0.0
C 18.7113 41.4559 0.0
C 6.53094 28.7244 0.0
C 20.8396 2.83931 0.0
C 2.70715 45.9896 0.0
C 9.4704 11.3062 0.0
C 19.6991 44.3156 0.0
C 40.0679 1.13399 0.0
C 9.66025 23.4154 0.0
C 6.9442 46.1027 0.0
C 31.4055 35.2664 0.0
49
Time step: 9
C 20.3419 23.7759 0.0
C 47.2331 43.068 0.0
C 19.8813 39.0736 0.0
C 31.1461 6.60223 0.0
C 38.0714 46.9525 0.0
C 40.7589 34.2547 0.0
C 17.3625 16.0133 0.0
C 9.50697 46.2305 0.0
C 4.71857 7.90446 0.0
C 30.9358 7.6708 0.0
C 48.6793 49.7645 0.0
C 17.1065 9.98728 0.0
C 16.4335 13.1999 0.0
C 42.8157 15.596 0.0
C 5.3206 23.5244 0.0
C 45.7328 26.3776 0.0
C 29.4451 19.4565 0.0
C 24.7889 42.5181 0.0
C 5.80608 18.6318 0.0
C 40.567 16.2523 0.0
C 31.7709 16.1017 0.0
C 23.7791 29.425 0.0
C 1.20156 37.6147 0.0
C 28.2262 9.81546 0.0
C 21.9679 32.3245 0.0
C 19.6438 31.2059 0.0
C 31.0503 31.7521 0.0
C 34.0248 17.8377 0.0
C 5.23343 33.3302 0.0
C 18.672 38.1507 0.0
C 0.633119 24.8675 0.0
C 34.3191 31.9474 0.0
C 41.3043 29.212 0.0
C 18.5879 39.1525 0.0
C 48.6882 27.002 0.0
C 5.50178 45.0187 0.0
C 16.162 39.4241 0.0
C 10.3786 20.3423 0.0
C 44.4281 16.4283 0.0
C 18.7825 42.4947 0.0
C 7.48696 26.062 0.0
C 19.2054 5.47567 0.0
C 2.60316 47.1542 0.0
C 8.13353 13.0293 0.0
C 18.7399 47.2508 0.0
C 41.4663 1.67607 0.0
C 10.3046 21.8215 0.0
C 7.15682 42.8021 0.0
C 30.9101 34.5525 0.0
49
Time step: 10
C 21.8866 26.1426 0.0
C 46.2088 41.9588 0.0
C 17.3396 38.4311 0.0
C 32.6163 5.83225 0.0
C 39.157 46.2142 0.0
C 43.8505 31.8497 0.0
C 19.8452 16.915 0.0
C 10.7548 45.4808 0.0
C 5.09004 5.82925 0.0
C 33.5717 5.257 0.0
C 46.0106 49.7739 0.0
C 14.3967 9.29036 0.0
C 20.1875 11.9789 0.0
C 46.8053 17.1284 0.0
C 2.34693 23.9184 0.0
C 43.5901 28.4384 0.0
C 30.7561 19.6648 0.0
C 25.5903 37.3762 0.0
C 6.45981 18.663 0.0
C 39.7739 16.8875 0.0
C 31.0008 15.0629 0.0
C 24.8882 31.0615 0.0
C 0.470575 39.1601 0.0
C 25.8931 11.9666 0.0
C 21.7107 34.7227 0.0
C 18.808 29.6206 0.0
C 31.2188 32.868 0.0
C 32.2599 17.8669 0.0
C 3.68524 33.4284 0.0
C 17.3537 33.7412 0.0
C 0.146617 26.4281 0.0
C 35.014 30.9686 0.0
C 42.2683 28.7552 0.0
C 19.9861 39.7244 0.0
C 48.9634 25.8421 0.0
C 6.03981 45.8781 0.0
C 16.1876 38.5124 0.0
C 9.41153 18.8937 0.0
C 43.9688 18.2367 0.0
C 18.0627 46.5652 0.0
C 8.38469 23.3948 0.0
C 17.5952 8.06889 0.0
C 2.55413 48.2539 0.0
C 6.82371 14.7184 0.0
C 17.8046 0.0996264 0.0
C 42.8341 2.20321 0.0
C 10.5639 19.8229 0.0
C 7.78585 40.0186 0.0
C 30.2565 34.1471 0.0
49
Time step: 11
C 23.3835 28.4548 0.0
C 45.2183 40.8764 0.0
C 15.0201 36.1483 0.0
C 35.6489 4.15682 0.0
C 40.2143 45.4967 0.0
C 46.2237 29.0848 0.0
C 22.2601 17.7714 0.0
C 11.9561 44.7491 0.0
C 5.45138 3.80966 0.0
C 34.5338 3.83517 0.0
C 43.3736 49.8787 0.0
C 11.8353 8.60355 0.0
C 23.8708 10.835 0.0
C 0.0148565 19.5219 0.0
C 0.549055 23.9433 0.0
C 45.4575 29.766 0.0
C 31.7751 21.0005 0.0
C 26.979 33.6301 0.0
C 7.69876 18.6606 0.0
C 39.0315 17.5096 0.0
C 29.4077 13.1086 0.0
C 25.3517 31.4026 0.0
C 49.7539 40.6661 0.0
C 23.5851 14.0165 0.0
C 21.4489 37.042 0.0
C 17.9908 28.1301 0.0
C 31.3482 33.7334 0.0
C 31.6411 17.7052 0.0
C 2.17808 33.5247 0.0
C 16.1678 29.8816 0.0
C 49.9707 28.0568 0.0
C 35.6618 30.028 0.0
C 39.9061 29.4092 0.0
C 23.0826 42.0693 0.0
C 47.8021 24.9674 0.0
C 6.55739 46.7201 0.0
C 14.2219 37.0514 0.0
C 8.34977 17.8561 0.0
C 44.1296 19.2261 0.0
C 17.3398 0.696108 0.0
C 9.25175 20.7209 0.0
C 15.9639 10.6209 0.0
C 2.52758 49.3094 0.0
C 5.57796 16.4427 0.0
C 16.9172 2.69362 0.0
C 44.2058 2.61873 0.0
C 10.3013 17.5347 0.0
C 8.39438 37.3218 0.0
C 29.6728 33.9721 0.0
49
Time step: 12
C 21.9567 28.5433 0.0
C 44.2996 39.8596 0.0
C 12.6101 34.3052 0.0
C 36.771 2.03971 0.0
C 41.2101 44.8255 0.0
C 46.8904 28.855 0.0
C 24.5266 18.5288 0.0
C 13.0816 44.0627 0.0
C 5.78493 1.90514 0.0
C 37.165 3.04236 0.0
C 40.9135 0.22584 0.0
C 9.45203 7.96219 0.0
C 27.5484 10.0756 0.0
C 2.85532 22.1536 0.0
C 1.76027 22.5133 0.0
C 47.9039 28.5338 0.0
C 32.3957 22.6739 0.0
C 29.0999 34.5455 0.0
C 7.3984 17.6713 0.0
C 38.3386 18.0957 0.0
C 27.754 11.1152 0.0
C 26.7719 29.569 0.0
C 49.0684 42.0813 0.0
C 21.3621 15.8416 0.0
C 21.2064 39.2235 0.0
C 17.5923 27.3427 0.0
C 32.0251 35.0621 0.0
C 31.3926 17.1241 0.0
C 0.760446 33.6117 0.0
C 14.6911 25.6445 0.0
C 0.299178 29.3367 0.0
C 36.6344 29.2628 0.0
C 37.4823 29.889 0.0
C 25.9888 44.2665 0.0
C 44.1797 25.6077 0.0
C 7.03751 47.5171 0.0
C 12.6059 35.3629 0.0
C 6.54461 17.074 0.0
C 44.2846 20.1537 0.0
C 17.1534 3.2927 0.0
C 11.6622 18.6007 0.0
C 14.4093 13.015 0.0
C 2.51764 0.301301 0.0
C 4.88279 18.2074 0.0
C 15.5905 6.41445 0.0
C 45.4746 2.75727 0.0
C 10.2501 15.6459 0.0
C 8.97373 34.7881 0.0
C 29.5623 33.1037 0.0
49
Time step: 13
C 19.1574 27.5682 0.0
C 43.4215 38.887 0.0
C 10.2949 31.842 0.0
C 37.6093 1.77684 0.0
C 42.1682 44.1827 0.0
C 48.3122 28.6685 0.0
C 26.6862 19.219 0.0
C 14.162 43.4037 0.0
C 6.07748 49.994 0.0
C 39.4554 1.15134 0.0
C 39.0416 49.9307 0.0
C 7.16443 7.34619 0.0
C 30.4305 7.07589 0.0
C 3.70944 22.8554 0.0
C 4.80639 22.949 0.0
C 47.1482 27.4846 0.0
C 32.9922 24.275 0.0
C 30.4544 33.8467 0.0
C 4.65196 17.2452 0.0
C 37.6737 18.6592 0.0
C 26.8153 11.4743 0.0
C 29.5178 28.9618 0.0
C 48.4042 43.4388 0.0
C 19.2455 17.6293 0.0
C 20.9739 41.3198 0.0
C 18.1674 26.4719 0.0
C 33.3447 36.4019 0.0
C 31.154 16.573 0.0
C 49.3977 33.6733 0.0
C 12.3722 21.6129 0.0
C 2.96126 30.3581 0.0
C 35.6378 26.6468 0.0
C 37.0831 32.2297 0.0
C 28.78 46.3763 0.0
C 40.7229 26.2752 0.0
C 7.46158 48.3487 0.0
C 11.307 34.4597 0.0
C 4.12703 18.164 0.0
C 44.4319 21.0476 0.0
C 17.0301 5.42426 0.0
C 15.4916 17.2415 0.0
C 12.8947 15.3394 0.0
C 2.57233 1.26954 0.0
C 6.11112 16.8073 0.0
C 14.259 10.3529 0.0
C 46.679 2.87333 0.0
C 9.95622 14.106 0.0
C 9.28012 32.3772 0.0
C 29.4406 33.7632 0.0
49
Time step: 14
C 18.4581 28.2956 0.0
C 42.579 37.9582 0.0
C 8.10506 28.5462 0.0
C 39.1575 49.8477 0.0
C 43.0899 43.5634 0.0
C 48.141 26.8606 0.0
C 28.7624 19.8765 0.0
C 15.1993 42.7713 0.0
C 6.70118 48.1155 0.0
C 40.3223 49.9022 0.0
C 37.8332 0.758237 0.0
C 4.9697 6.75484 0.0
C 33.1581 4.44353 0.0
C 6.97399 23.4525 0.0
C 5.2863 23.4095 0.0
C 47.9806 28.1201 0.0
C 33.8472 26.0065 0.0
C 31.1364 32.7896 0.0
C 3.73286 16.9213 0.0
C 37.0351 19.2005 0.0
C 25.9531 11.5737 0.0
C 32.1634 28.3892 0.0
C 47.764 44.7407 0.0
C 16.9266 18.7221 0.0
C 20.7502 43.3313 0.0
C 16.731 23.9718 0.0
C 34.5187 37.6242 0.0
C 30.92 16.0483 0.0
C 48.0946 33.7167 0.0
C 9.85699 17.6846 0.0
C 5.49368 31.3369 0.0
C 34.4979 24.1165 0.0
C 36.6013 34.3166 0.0
C 31.458 48.4007 0.0
C 37.3967 26.9133 0.0
C 7.48001 49.1968 0.0
C 10.783 35.1781 0.0
C 4.86305 17.4095 0.0
C 44.5722 21.907 0.0
C 16.9086 7.47515 0.0
C 19.3942 16.4892 0.0
C 11.6988 17.6515 0.0
C 2.68107 2.18935 0.0
C 2.6044 17.2663 0.0
C 12.968 14.1375 0.0
C 47.8363 2.984 0.0
C 9.7746 12.672 0.0
C 8.82838 29.3912 0.0
C 30.0353 34.8208 0.0
49
Time step: 15
C 17.6734 28.8803 0.0
C 41.742 37.0379 0.0
C 6.52867 26.5878 0.0
C 39.0517 48.313 0.0
C 44.0143 42.9493 0.0
C 47.7492 27.3842 0.0
C 30.8344 20.5181 0.0
C 16.2331 42.1437 0.0
C 7.97399 46.5622 0.0
C 39.3134 49.3869 0.0
C 40.1407 0.475121 0.0
C 2.78451 6.14994 0.0
C 35.8525 1.79985 0.0
C 7.45547 23.7184 0.0
C 8.56191 24.034 0.0
C 49.0284 26.4335 0.0
C 35.2007 25.9388 0.0
C 30.9053 33.0313 0.0
C 3.12674 17.2305 0.0
C 36.398 19.7411 0.0
C 25.097 11.6735 0.0
C 32.5608 28.4982 0.0
C 47.1186 46.0305 0.0
C 14.4128 18.9883 0.0
C 20.5247 45.329 0.0
C 15.39 21.604 0.0
C 35.7172 38.7346 0.0
C 30.6801 15.5401 0.0
C 46.7998 33.7561 0.0
C 5.31885 14.8496 0.0
C 8.04548 32.2803 0.0
C 32.867 23.8825 0.0
C 36.0809 36.4831 0.0
C 34.1395 0.437841 0.0
C 36.3152 26.3867 0.0
C 6.85838 49.7574 0.0
C 10.253 35.876 0.0
C 1.88256 17.5066 0.0
C 44.7133 22.7632 0.0
C 16.7877 9.51293 0.0
C 23.3453 16.5639 0.0
C 12.9398 19.0791 0.0
C 2.79047 3.11618 0.0
C 2.5349 16.1959 0.0
C 11.3745 17.7065 0.0
C 48.9975 3.09293 0.0
C 9.65224 11.2808 0.0
C 7.65915 25.1631 0.0
C 31.5485 34.5732 0.0
49
Time step: 16
C 16.9983 29.3827 0.0
C 41.0199 36.2472 0.0
C 4.29976 27.221 0.0
C 39.2407 49.2148 0.0
C 44.8206 42.4318 0.0
C 49.306 26.9023 0.0
C 32.6421 21.1271 0.0
C 17.1258 41.6063 0.0
C 8.98399 45.5944 0.0
C 39.6338 48.0393 0.0
C 40.4418 49.0364 0.0
C 1.15957 5.03761 0.0
C 36.7639 0.152014 0.0
C 8.67023 22.0772 0.0
C 8.4598 23.2071 0.0
C 48.0296 25.9101 0.0
C 38.0498 25.4616 0.0
C 30.8964 33.782 0.0
C 0.981043 16.2385 0.0
C 35.8392 20.2141 0.0
C 24.3604 11.765 0.0
C 29.1585 30.0193 0.0
C 46.5512 47.1288 0.0
C 14.5129 17.0389 0.0
C 20.3272 47.0448 0.0
C 13.9547 21.1798 0.0
C 37.0083 39.2834 0.0
C 30.4716 15.1114 0.0
C 45.6845 33.7897 0.0
C 1.21091 12.6931 0.0
C 10.254 33.1165 0.0
C 31.6473 24.0266 0.0
C 35.3529 38.552 0.0
C 38.1264 1.39566 0.0
C 37.2449 24.5219 0.0
C 6.4052 49.8765 0.0
C 9.78535 36.4428 0.0
C 2.41526 16.2669 0.0
C 44.8409 23.5061 0.0
C 16.6834 11.2658 0.0
C 26.745 16.6231 0.0
C 11.9555 21.7782 0.0
C 2.53224 4.45304 0.0
C 1.23259 17.5749 0.0
C 9.9179 19.8769 0.0
C 0.0995431 3.2356 0.0
C 9.54726 10.0904 0.0
C 9.82743 22.2712 0.0
C 32.6706 33.805 0.0
49
Time step: 17
C 16.4288 29.8065 0.0
C 40.4097 35.5825 0.0
C 2.42902 27.7176 0.0
C 40.2117 49.3104 0.0
C 45.5034 42.0018 0.0
C 49.1961 25.5092 0.0
C 34.1645 21.9866 0.0
C 17.8795 41.1543 0.0
C 9.8304 44.7886 0.0
C 41.2948 49.579 0.0
C 38.1415 46.0687 0.0
C 0.191263 4.36731 0.0
C 38.9492 0.176977 0.0
C 11.021 22.5032 0.0
C 11.0683 21.396 0.0
C 48.6006 26.443 0.0
C 39.3029 23.3431 0.0
C 31.8528 34.5924 0.0
C 0.737305 15.9789 0.0
C 35.3355 20.4216 0.0
C 23.7409 11.8465 0.0
C 26.2992 31.3199 0.0
C 46.0676 48.0494 0.0
C 14.4171 13.6279 0.0
C 20.1598 48.4905 0.0
C 12.1433 22.326 0.0
C 36.9802 39.5893 0.0
C 30.0922 15.0241 0.0
C 44.7396 33.8202 0.0
C 47.6828 11.0928 0.0
C 12.1038 33.9054 0.0
C 30.6687 24.0116 0.0
C 35.9256 40.4353 0.0
C 40.6241 0.402287 0.0
C 39.1617 24.6481 0.0
C 6.02605 49.9688 0.0
C 9.40384 36.8366 0.0
C 49.8308 16.4896 0.0
C 44.9695 24.1491 0.0
C 16.5725 12.7644 0.0
C 29.8126 16.4003 0.0
C 9.67609 24.1273 0.0
C 2.30561 6.39713 0.0
C 1.6669 16.6743 0.0
C 8.90732 19.2031 0.0
C 0.634233 2.26643 0.0
C 9.45904 9.08673 0.0
C 9.78626 21.7973 0.0
C 32.6479 32.9635 0.0
49
Time step: 18
C 15.823 30.258 0.0
C 39.7699 34.8794 0.0
C 0.239706 28.047 0.0
C 43.1721 49.4157 0.0
C 46.2277 41.5484 0.0
C 48.6333 25.3234 0.0
C 34.5204 23.8971 0.0
C 18.6787 40.6754 0.0
C 10.7268 43.9356 0.0
C 43.2637 0.516411 0.0
C 33.3775 42.6336 0.0
C 49.3028 2.89774 0.0
C 42.1733 49.6978 0.0
C 11.4647 22.2143 0.0
C 10.3666 21.9954 0.0
C 49.8121 25.8925 0.0
C 40.4107 23.4031 0.0
C 32.9785 35.8375 0.0
C 1.05875 16.1861 0.0
C 36.0334 19.6879 0.0
C 23.0845 11.9337 0.0
C 23.2713 32.7017 0.0
C 45.499 49.0371 0.0
C 16.2951 10.9159 0.0
C 19.9821 0.0230952 0.0
C 12.5878 22.6955 0.0
C 37.7067 39.3188 0.0
C 29.5809 15.0352 0.0
C 43.7245 33.8575 0.0
C 43.9493 9.4134 0.0
C 14.0399 34.7799 0.0
C 29.6722 23.9601 0.0
C 36.1909 42.9657 0.0
C 42.2464 0.826304 0.0
C 41.407 22.4647 0.0
C 5.62185 0.0669508 0.0
C 9.02634 37.2139 0.0
C 49.8026 16.3881 0.0
C 45.1418 24.849 0.0
C 14.4746 13.449 0.0
C 33.1628 16.0865 0.0
C 6.01889 24.5797 0.0
C 1.95766 8.01023 0.0
C 48.8286 15.5561 0.0
C 8.95342 19.5444 0.0
C 1.17039 2.44315 0.0
C 9.36611 8.0231 0.0
C 12.8108 21.5761 0.0
C 32.5096 31.6839 0.0
49
Time step: 19
C 15.2514 30.6899 0.0
C 39.1953 34.2186 0.0
C 47.9487 27.6461 0.0
C 45.1406 0.897504 0.0
C 46.9085 41.1225 0.0
C 48.9504 25.394 0.0
C 34.8914 25.6155 0.0
C 19.4298 40.2247 0.0
C 11.5692 43.1332 0.0
C 46.2704 1.45349 0.0
C 28.3594 40.1419 0.0
C 49.5597 1.60163 0.0
C 43.4686 49.1897 0.0
C 12.5987 22.1222 0.0
C 12.5159 21.0285 0.0
C 0.268125 25.8001 0.0
C 43.0248 21.9066 0.0
C 33.8838 37.3429 0.0
C 0.0180806 14.9299 0.0
C 36.6416 19.0662 0.0
C 22.4665 12.0153 0.0
C 20.4244 34.0008 0.0
C 45.7627 49.9222 0.0
C 18.6653 9.46011 0.0
C 19.8152 1.46385 0.0
C 11.5428 22.7711 0.0
C 38.2228 39.2525 0.0
C 29.4794 15.3223 0.0
C 42.7394 33.8997 0.0
C 40.4399 7.83486 0.0
C 15.8586 35.5979 0.0
C 28.7462 23.9101 0.0
C 37.1489 44.4103 0.0
C 44.6029 49.8443 0.0
C 41.9609 21.9748 0.0
C 5.23608 0.162154 0.0
C 8.67598 37.5665 0.0
C 48.0171 16.1285 0.0
C 45.3637 25.511 0.0
C 11.8985 12.9988 0.0
C 35.9414 15.5299 0.0
C 2.6413 24.942 0.0
C 1.62347 9.51452 0.0
C 49.2621 16.1193 0.0
C 9.41324 20.2292 0.0
C 0.605368 2.54079 0.0
C 9.279 7.02367 0.0
C 13.3958 23.0772 0.0
C 32.5353 30.1482 0.0
49
Time step: 20
C 14.6951 31.1209 0.0
C 38.7227 33.5754 0.0
C 46.4223 27.5992 0.0
C 47.1442 0.242034 0.0
C 47.5737 40.7064 0.0
C 47.8304 23.8108 0.0
C 35.2382 27.3071 0.0
C 20.1621 39.7791 0.0
C 12.3914 42.3479 0.0
C 47.8377 1.05301 0.0
C 23.4594 37.7071 0.0
C 48.2477 49.9788 0.0
C 46.8311 49.0669 0.0
C 13.3008 21.8808 0.0
C 13.6823 22.9658 0.0
C 0.917473 26.2352 0.0
C 43.5316 20.6444 0.0
C 34.7798 38.817 0.0
C 47.6985 14.7294 0.0
C 37.2299 18.3954 0.0
C 21.852 12.084 0.0
C 17.7401 34.8113 0.0
C 46.926 1.88283 0.0
C 20.9893 8.05083 0.0
C 19.6521 2.8717 0.0
C 12.491 21.1624 0.0
C 38.715 39.1837 0.0
C 29.3832 15.603 0.0
C 41.6852 33.9461 0.0
C 37.0117 6.2928 0.0
C 17.5371 36.8539 0.0
C 27.8436 23.8619 0.0
C 38.0847 45.8141 0.0
C 46.0122 0.497949 0.0
C 44.6006 21.3096 0.0
C 4.85144 0.258883 0.0
C 8.33495 37.9121 0.0
C 49.2093 15.7627 0.0
C 45.6876 26.001 0.0
C 9.38391 12.556 0.0
C 38.6605 15.0519 0.0
C 49.7224 26.2046 0.0
C 1.29501 10.987 0.0
C 48.0535 15.7514 0.0
C 10.9467 21.628 0.0
C 0.849276 3.27431 0.0
C 9.19428 6.04833 0.0
C 12.5477 23.0127 0.0
C 32.5748 28.6339 0.0
49
Time step: 21
C 14.1372 31.5737 0.0
C 38.7605 33.0624 0.0
C 45.5797 29.2785 0.0
C 47.5154 49.1777 0.0
C 48.2522 40.282 0.0
C 45.6351 21.8713 0.0
C 35.2901 29.0952 0.0
C 20.8679 39.2094 0.0
C 13.2291 41.5449 0.0
C 47.5487 2.06227 0.0
C 18.3891 35.2982 0.0
C 3.22065 0.991319 0.0
C 46.6458 49.8408 0.0
C 13.8092 23.7152 0.0
C 15.6358 23.4302 0.0
C 49.1708 27.7721 0.0
C 46.2683 20.6254 0.0
C 35.7382 40.3214 0.0
C 46.8804 15.8272 0.0
C 37.8544 17.642 0.0
C 21.2167 12.1279 0.0
C 16.1247 34.6633 0.0
C 48.3607 0.66348 0.0
C 23.3655 6.63345 0.0
C 19.4886 4.31374 0.0
C 14.0805 22.6044 0.0
C 39.1747 39.1072 0.0
C 29.2851 15.8894 0.0
C 40.0874 33.8565 0.0
C 33.5145 4.71969 0.0
C 18.2246 39.1613 0.0
C 26.9236 23.8135 0.0
C 39.0395 47.2448 0.0
C 47.2183 0.819009 0.0
C 45.4658 19.7661 0.0
C 4.35345 0.395765 0.0
C 7.98855 38.2663 0.0
C 47.4978 14.2474 0.0
C 45.5677 24.3953 0.0
C 6.81843 12.103 0.0
C 41.4114 14.6341 0.0
C 49.6241 26.7424 0.0
C 0.942859 12.5111 0.0
C 48.2134 15.2012 0.0
C 10.5951 20.6238 0.0
C 0.804181 3.65505 0.0
C 9.10757 5.05414 0.0
C 12.8033 22.8714 0.0
C 32.9166 27.0269 0.0
49
Time step: 22
C 13.6815 32.2203 0.0
C 38.4138 31.9571 0.0
C 44.9598 31.4862 0.0
C 47.6709 49.5099 0.0
C 48.9306 39.8576 0.0
C 44.7009 18.918 0.0
C 35.1279 30.8007 0.0
C 21.0098 38.662 0.0
C 14.0688 40.7393 0.0
C 49.6339 0.820267 0.0
C 14.9472 33.1065 0.0
C 5.25094 3.91867 0.0
C 46.7328 0.353108 0.0
C 14.8542 24.2624 0.0
C 17.4354 26.6479 0.0
C 48.0091 27.9485 0.0
C 46.6388 19.8837 0.0
C 36.7603 41.8023 0.0
C 47.4807 16.5999 0.0
C 38.4906 16.8763 0.0
C 20.5822 12.1674 0.0
C 12.7584 34.2726 0.0
C 48.2037 0.439362 0.0
C 25.7302 5.21342 0.0
C 19.3356 5.76278 0.0
C 14.1467 22.1245 0.0
C 39.571 39.0462 0.0
C 29.1871 16.1758 0.0
C 38.8654 34.3595 0.0
C 30.0178 3.14698 0.0
C 19.4941 41.282 0.0
C 26.0047 23.7655 0.0
C 39.9942 48.6752 0.0
C 46.5338 1.6528 0.0
C 47.2367 20.7666 0.0
C 7.7226 47.9807 0.0
C 7.64376 38.6214 0.0
C 46.9616 14.0656 0.0
C 45.4938 21.4067 0.0
C 4.25002 11.6504 0.0
C 44.1978 14.2247 0.0
C 48.8898 28.6313 0.0
C 0.498023 14.0944 0.0
C 45.8139 13.6452 0.0
C 9.94535 19.7031 0.0
C 0.63906 3.72415 0.0
C 9.01789 4.05877 0.0
C 14.6935 23.1698 0.0
C 33.4807 25.5093 0.0
49
Time step: 23
C 10.6423 31.2052 0.0
C 37.9796 31.8437 0.0
C 44.3431 33.7299 0.0
C 48.3167 1.63023 0.0
C 49.6252 39.4231 0.0
C 47.2241 17.1573 0.0
C 35.0633 32.562 0.0
C 20.9272 38.288 0.0
C 14.9318 39.9132 0.0
C 2.14506 46.7294 0.0
C 13.8232 33.0048 0.0
C 7.33403 6.82422 0.0
C 47.2161 1.16509 0.0
C 16.107 23.553 0.0
C 19.6413 30.5452 0.0
C 47.9026 28.9676 0.0
C 45.7097 19.4369 0.0
C 37.8366 43.2937 0.0
C 47.8759 15.7419 0.0
C 39.1454 16.0912 0.0
C 19.9324 12.2062 0.0
C 9.4841 33.4135 0.0
C 46.9577 2.15541 0.0
C 28.1837 3.36608 0.0
C 19.1817 7.24833 0.0
C 14.9984 23.3832 0.0
C 39.9457 38.9993 0.0
C 29.0867 16.469 0.0
C 37.5878 33.8386 0.0
C 26.4029 1.92978 0.0
C 21.0171 43.2654 0.0
C 25.0639 23.7165 0.0
C 40.9731 0.140167 0.0
C 46.007 1.58877 0.0
C 47.1993 19.5639 0.0
C 11.2052 45.5871 0.0
C 7.29207 38.9847 0.0
C 48.3715 10.4124 0.0
C 44.5403 19.6668 0.0
C 1.60743 11.1949 0.0
C 44.3639 14.6757 0.0
C 47.0568 29.7466 0.0
C 49.9084 15.7462 0.0
C 44.8595 15.6785 0.0
C 9.29479 18.772 0.0
C 0.35452 3.60302 0.0
C 8.8681 3.05886 0.0
C 15.3487 22.2786 0.0
C 34.0653 23.9665 0.0
49
Time step: 24
C 7.9464 30.1638 0.0
C 37.5252 31.6561 0.0
C 43.7795 35.787 0.0
C 47.2096 3.20937 0.0
C 0.264729 39.0235 0.0
C 0.148266 14.0159 0.0
C 34.1356 34.276 0.0
C 20.8457 37.9609 0.0
C 15.7276 39.1534 0.0
C 4.88213 42.8875 0.0
C 12.6421 32.9443 0.0
C 9.28538 9.46377 0.0
C 48.2784 2.77486 0.0
C 16.8414 22.4117 0.0
C 21.6691 34.1324 0.0
C 46.7178 30.8831 0.0
C 45.5868 19.9913 0.0
C 38.833 44.6563 0.0
C 48.4069 14.4739 0.0
C 39.7574 15.3689 0.0
C 19.3329 12.2312 0.0
C 6.51625 32.6992 0.0
C 45.9807 2.94924 0.0
C 30.0344 0.548425 0.0
C 19.0415 8.62634 0.0
C 16.4962 23.5803 0.0
C 40.2842 38.9613 0.0
C 28.9943 16.7388 0.0
C 37.3381 33.3534 0.0
C 23.4832 1.92702 0.0
C 22.4216 45.0724 0.0
C 24.1981 23.6713 0.0
C 41.8825 1.49054 0.0
C 46.9697 2.14452 0.0
C 44.6795 19.2845 0.0
C 14.4111 43.383 0.0
C 6.96866 39.3179 0.0
C 0.146824 7.3792 0.0
C 43.3849 19.1439 0.0
C 48.9613 10.5545 0.0
C 44.7291 16.1472 0.0
C 46.4501 29.8042 0.0
C 0.0642655 15.7745 0.0
C 44.0176 17.059 0.0
C 8.69729 17.9159 0.0
C 49.3107 3.07294 0.0
C 8.69504 2.17297 0.0
C 15.4473 22.9176 0.0
C 34.6034 22.5468 0.0
49
Time step: 25
C 5.06204 29.4822 0.0
C 37.045 31.7518 0.0
C 43.1944 37.8526 0.0
C 45.9475 3.50792 0.0
C 0.905125 38.6255 0.0
C 1.07752 13.916 0.0
C 31.9195 35.8697 0.0
C 20.9166 37.4975 0.0
C 16.5262 38.4323 0.0
C 7.05004 41.1946 0.0
C 11.4545 32.8809 0.0
C 11.2333 12.097 0.0
C 47.7881 5.09234 0.0
C 17.1749 21.8665 0.0
C 23.5342 37.8526 0.0
C 45.1537 31.1732 0.0
C 43.2719 17.7882 0.0
C 39.8285 46.0138 0.0
C 0.0168334 10.5468 0.0
C 40.3907 14.6588 0.0
C 18.7328 12.0573 0.0
C 3.75642 31.6331 0.0
C 47.1455 2.92672 0.0
C 31.857 47.7289 0.0
C 18.9033 10.2005 0.0
C 16.5269 22.8923 0.0
C 40.6441 38.9085 0.0
C 28.902 17.0082 0.0
C 38.4076 32.7053 0.0
C 20.5936 1.93043 0.0
C 23.8233 46.8762 0.0
C 23.3333 23.6262 0.0
C 42.8278 2.84739 0.0
C 47.7182 3.85229 0.0
C 43.8703 20.6077 0.0
C 17.6131 41.1434 0.0
C 7.20781 37.5062 0.0
C 1.97859 4.60085 0.0
C 42.5299 20.6129 0.0
C 46.2891 9.79666 0.0
C 44.1353 18.37 0.0
C 46.2239 31.4874 0.0
C 0.983582 15.2852 0.0
C 44.1693 17.1434 0.0
C 8.10101 17.0613 0.0
C 48.236 2.75458 0.0
C 8.52206 1.29037 0.0
C 17.0399 23.8037 0.0
C 35.1405 21.1297 0.0
49
Time step: 26
C 2.308 28.6134 0.0
C 37.5123 32.1283 0.0
C 42.5807 40.3748 0.0
C 44.5163 3.03247 0.0
C 1.55505 38.2232 0.0
C 1.64354 13.6418 0.0
C 29.6819 37.4794 0.0
C 21.381 37.0227 0.0
C 17.4832 37.9201 0.0
C 8.45683 42.0517 0.0
C 10.2111 32.835 0.0
C 13.2031 14.7624 0.0
C 48.805 5.22393 0.0
C 17.2593 22.3881 0.0
C 24.9526 41.7257 0.0
C 45.4084 31.7796 0.0
C 43.2922 18.6922 0.0
C 40.836 47.3869 0.0
C 1.99027 6.78751 0.0
C 41.0623 13.9729 0.0
C 17.6821 13.6902 0.0
C 0.801625 30.735 0.0
C 47.01 4.24729 0.0
C 33.7009 44.8767 0.0
C 19.2062 9.98441 0.0
C 16.8598 23.5857 0.0
C 41.0247 38.4224 0.0
C 28.809 17.2808 0.0
C 38.5569 31.7772 0.0
C 17.6711 1.9324 0.0
C 25.2405 48.7023 0.0
C 22.4521 23.5798 0.0
C 43.5618 4.31158 0.0
C 47.5647 5.18965 0.0
C 42.6046 20.1863 0.0
C 20.785 38.5648 0.0
C 8.27486 33.0838 0.0
C 3.76237 1.75991 0.0
C 42.7229 21.8955 0.0
C 43.6881 9.12946 0.0
C 42.5832 17.7273 0.0
C 44.4812 32.6285 0.0
C 1.83432 14.6298 0.0
C 42.1623 19.0453 0.0
C 7.49866 16.1947 0.0
C 48.2973 4.31791 0.0
C 8.34626 0.397857 0.0
C 18.5795 22.4695 0.0
C 35.684 19.696 0.0
49
Time step: 27
C 0.112766 27.0905 0.0
C 38.3847 32.3819 0.0
C 42.3822 42.6011 0.0
C 43.9236 3.65823 0.0
C 2.1774 37.8381 0.0
C 2.06275 12.7536 0.0
C 27.5387 39.0211 0.0
C 22.2731 34.2144 0.0
C 18.5649 37.4988 0.0
C 9.80328 42.8712 0.0
C 8.97438 33.383 0.0
C 15.1429 17.2818 0.0
C 48.7426 5.46163 0.0
C 18.1895 22.8461 0.0
C 26.2903 45.4217 0.0
C 44.1704 33.6864 0.0
C 43.1525 20.7798 0.0
C 41.801 48.702 0.0
C 3.81393 3.15919 0.0
C 41.7217 13.3455 0.0
C 16.6147 15.5888 0.0
C 47.5249 30.5705 0.0
C 46.9105 5.91222 0.0
C 35.4659 42.1466 0.0
C 19.5016 9.47505 0.0
C 18.5482 23.9377 0.0
C 40.9994 38.1437 0.0
C 28.7204 17.5419 0.0