125
Time step: 0
C 2.5 2.5 2.5
C 5.0 2.5 2.5
C 7.5 2.5 2.5
C 10.0 2.5 2.5
C 12.5 2.5 2.5
C 2.5 5.0 2.5
C 5.0 5.0 2.5
C 7.5 5.0 2.5
C 10.0 5.0 2.5
C 12.5 5.0 2.5
C 2.5 7.5 2.5
C 5.0 7.5 2.5
C 7.5 7.5 2.5
C 10.0 7.5 2.5
C 12.5 7.5 2.5
C 2.5 10.0 2.5
C 5.0 10.0 2.5
C 7.5 10.0 2.5
C 10.0 10.0 2.5
C 12.5 10.0 2.5
C 2.5 12.5 2.5
C 5.0 12.5 2.5
C 7.5 12.5 2.5
C 10.0 12.5 2.5
C 12.5 12.5 2.5
C 2.5 2.5 5.0
C 5.0 2.5 5.0
C 7.5 2.5 5.0
C 10.0 2.5 5.0
C 12.5 2.5 5.0
C 2.5 5.0 5.0
C 5.0 5.0 5.0
C 7.5 5.0 5.0
C 10.0 5.0 5.0
C 12.5 5.0 5.0
C 2.5 7.5 5.0
C 5.0 7.5 5.0
C 7.5 7.5 5.0
C 10.0 7.5 5.0
C 12.5 7.5 5.0
C 2.5 10.0 5.0
C 5.0 10.0 5.0
C 7.5 10.0 5.0
C 10.0 10.0 5.0
C 12.5 10.0 5.0
C 2.5 12.5 5.0
C 5.0 12.5 5.0
C 7.5 12.5 5.0
C 10.0 12.5 5.0
C 12.5 12.5 5.0
C 2.5 2.5 7.5
C 5.0 2.5 7.5
C 7.5 2.5 7.5
C 10.0 2.5 7.5
C 12.5 2.5 7.5
C 2.5 5.0 7.5
C 5.0 5.0 7.5
C 7.5 5.0 7.5
C 10.0 5.0 7.5
C 12.5 5.0 7.5
C 2.5 7.5 7.5
C 5.0 7.5 7.5
C 7.5 7.5 7.5
C 10.0 7.5 7.5
C 12.5 7.5 7.5
C 2.5 10.0 7.5
C 5.0 10.0 7.5
C 7.5 10.0 7.5
C 10.0 10.0 7.5
C 12.5 10.0 7.5
C 2.5 12.5 7.5
C 5.0 12.5 7.5
C 7.5 12.5 7.5
C 10.0 12.5 7.5
C 12.5 12.5 7.5
C 2.5 2.5 10.0
C 5.0 2.5 10.0
C 7.5 2.5 10.0
C 10.0 2.5 10.0
C 12.5 2.5 10.0
C 2.5 5.0 10.0
C 5.0 5.0 10.0
C 7.5 5.0 10.0
C 10.0 5.0 10.0
C 12.5 5.0 10.0
C 2.5 7.5 10.0
C 5.0 7.5 10.0
C 7.5 7.5 10.0
C 10.0 7.5 10.0
C 12.5 7.5 10.0
C 2.5 10.0 10.0
C 5.0 10.0 10.0
C 7.5 10.0 10.0
C 10.0 10.0 10.0
C 12.5 10.0 10.0
C 2.5 12.5 10.0
C 5.0 12.5 10.0
C 7.5 12.5 10.0
C 10.0 12.5 10.0
C 12.5 12.5 10.0
C 2.5 2.5 12.5
C 5.0 2.5 12.5
C 7.5 2.5 12.5
C 10.0 2.5 12.5
C 12.5 2.5 12.5
C 2.5 5.0 12.5
C 5.0 5.0 12.5
C 7.5 5.0 12.5
C 10.0 5.0 12.5
C 12.5 5.0 12.5
C 2.5 7.5 12.5
C 5.0 7.5 12.5
C 7.5 7.5 12.5
C 10.0 7.5 12.5
C 12.5 7.5 12.5
C 2.5 10.0 12.5
C 5.0 10.0 12.5
C 7.5 10.0 12.5
C 10.0 10.0 12.5
C 12.5 10.0 12.5
C 2.5 12.5 12.5
C 5.0 12.5 12.5
C 7.5 12.5 12.5
C 10.0 12.5 12.5
C 12.5 12.5 12.5
125
Time step: 1
C 1.68052 4.08777 3.28368
C 3.28995 1.64136 3.20388
C 8.24726 3.85815 2.56484
C 9.28257 3.72563 3.16138
C 12.9896 2.44963 2.13666
C 1.6975 3.85955 1.84815
C 5.36665 5.41209 3.52345
C 8.34903 4.58528 3.71309
C 8.79515 4.88108 2.64568
C 12.3817 6.54214 3.6093
C 3.97665 8.42598 3.72915
C 4.27531 8.63107 2.69349
C 9.19028 8.15889 4.3603
C 9.58914 8.09673 3.22982
C 11.4151 6.99351 3.10901
C 2.25263 8.61709 2.38701
C 5.66597 9.06757 4.16118
C 8.03805 8.52097 2.47041
C 11.4291 10.4943 2.91906
C 10.4932 11.0843 2.53508
C 3.28663 13.8132 2.57061
C 3.44546 12.7381 2.66544
C 8.09093 13.257 3.92589
C 8.80416 12.8112 3.31024
C 11.3917 11.2344 1.72367
C 1.34372 3.28097 3.89796
C 5.47399 2.02073 5.57591
C 8.55873 3.9562 4.75079
C 9.00316 3.40222 5.79313
C 12.4692 3.20421 6.01607
C 2.39585 3.81406 4.07348
C 6.64064 4.33938 3.73361
C 7.50491 4.19272 4.38161
C 9.41479 4.72716 3.69433
C 12.8917 3.92421 5.36192
C 3.20901 8.7464 2.96781
C 5.07038 8.26331 4.51471
C 8.41829 8.41283 3.53629
C 10.5831 7.57869 3.33901
C 11.9311 7.42919 4.02064
C 2.02788 8.95971 3.49865
C 4.99932 7.9763 3.33667
C 7.00367 8.31884 2.86821
C 9.55655 9.04819 3.81677
C 12.2568 8.33065 4.62338
C 3.02785 11.5124 4.73385
C 3.00106 12.6694 4.4926
C 9.21043 13.5991 3.96091
C 8.56184 13.8853 3.01003
C 11.8307 12.5501 5.92416
C 2.21597 2.56878 7.49486
C 4.78307 1.85865 6.43274
C 7.90296 3.61485 5.80111
C 8.36531 3.49657 6.81915
C 12.3192 4.21679 6.32888
C 3.33269 6.00577 7.22371
C 3.8405 6.20402 8.23975
C 9.51856 5.41718 7.89939
C 8.91524 6.17162 8.73536
C 12.7642 5.25459 6.43238
C 3.11384 7.10158 7.7318
C 4.78294 8.8059 7.02681
C 8.58844 5.25351 8.36809
C 10.3652 8.51314 8.05384
C 12.5586 9.27695 8.12604
C 2.63232 10.2154 7.7162
C 5.9264 8.86547 6.45233
C 6.54661 9.70066 6.98458
C 9.42038 9.07222 8.24496
C 12.9268 10.2216 7.59285
C 3.16291 12.2789 5.55522
C 4.40943 12.7477 8.65501
C 7.69381 12.3542 7.21532
C 9.99909 12.6357 8.10048
C 13.7517 10.6418 8.43961
C 3.0542 3.53584 9.1104
C 3.9977 3.93314 8.65901
C 8.5244 2.52815 12.459
C 10.3603 3.1732 11.1924
C 12.2059 3.61975 12.1186
C 3.12723 4.64989 9.27921
C 4.1125 3.20489 9.46722
C 8.11364 6.1114 9.46818
C 9.93691 6.27614 8.85569
C 11.272 3.60189 11.4196
C 1.62082 7.26974 11.7756
C 4.5874 7.12892 11.6427
C 6.53152 6.3778 11.7064
C 9.5852 7.4313 11.8892
C 11.7078 7.60603 11.3892
C 2.24525 11.4504 11.0738
C 4.10711 8.49968 10.4636
C 8.54855 9.3612 10.6191
C 9.27746 9.57954 9.79178
C 13.6909 9.58383 8.18871
C 3.19975 11.5573 11.682
C 5.13579 13.472 8.21818
C 6.81558 11.6136 11.0898
C 10.2426 12.3663 9.41236
C 11.4294 12.9747 10.0448
C 1.88703 2.21614 11.6594
C 6.96004 3.63982 12.327
C 7.43931 2.6657 12.3245
C 9.48362 2.59743 11.4938
C 12.1283 2.75045 11.5288
C 1.79845 4.80197 12.4194
C 6.12074 5.36793 11.7064
C 5.46811 6.28178 11.9505
C 10.2395 6.37383 11.9327
C 11.6251 6.25267 13.1996
C 1.20165 7.25929 10.7477
C 4.81944 7.52657 10.5785
C 5.68448 7.35804 11.6888
C 10.6739 7.39603 11.655
C 11.3582 6.64054 12.1277
C 3.2248 11.4242 10.3969
C 4.92731 8.256 11.5119
C 7.81076 9.67242 11.4379
C 9.357 9.60375 11.2996
C 12.2677 8.33237 11.9297
C 2.89409 12.4884 11.2603
C 6.3231 10.4598 11.2898
C 7.38758 10.5635 10.8064
C 10.2875 12.5029 12.9516
C 11.4364 12.394 13.3434
125
Time step: 2
C 0.98214 4.21053 3.26605
C 2.45129 2.14014 3.13405
C 8.3418 4.3593 3.70972
C 9.11816 4.6985 4.37712
C 13.2659 1.95913 1.80371
C 1.5943 4.96528 2.77301
C 6.63734 4.75882 3.41986
C 7.70178 5.20651 3.518
C 8.4245 4.96661 2.75368
C 10.5121 6.47698 4.57778
C 3.9544 8.79242 3.2177
C 5.00768 9.07217 2.95553
C 8.91082 6.56713 3.48277
C 9.9199 6.9783 2.97584
C 10.031 6.11666 3.60162
C 4.37788 8.66547 2.17702
C 4.40539 9.61088 3.79485
C 9.04014 7.55768 2.91119
C 11.6808 9.54446 2.64687
C 10.8777 10.3292 2.77634
C 3.05007 12.2832 3.23095
C 2.80875 13.0145 3.99612
C 7.52265 14.0638 5.09827
C 8.33528 13.3059 4.80181
C 11.9159 10.6206 2.56745
C 1.36981 3.14359 3.19002
C 5.63019 2.22506 7.39485
C 8.27579 3.98726 4.74326
C 9.27578 3.83214 5.1177
C 13.3782 3.5457 6.63864
C 2.04603 4.03205 3.05011
C 7.51244 4.20739 3.00613
C 7.37367 4.40305 4.20526
C 8.82782 5.44843 3.62109
C 13.0412 3.39079 5.581
C 4.11691 9.73757 2.66527
C 4.84517 8.59264 3.98343
C 8.88969 7.71181 3.98679
C 9.69486 6.97267 4.09875
C 10.8427 7.04913 3.66042
C 3.26351 9.09456 2.40854
C 4.70476 7.99929 3.0395
C 8.00779 7.38865 3.26839
C 10.0629 7.9627 3.7033
C 10.3477 7.56891 4.84994
C 2.26397 11.9598 3.96845
C 3.3421 12.1139 4.29556
C 8.63099 14.3474 5.00551
C 8.01026 14.1261 4.12497
C 11.4184 11.4894 5.11171
C 1.9565 3.9838 7.86616
C 5.39535 1.96131 6.34189
C 8.12241 5.0722 4.56109
C 8.76339 4.76479 5.40862
C 12.8428 4.36369 6.10094
C 2.62064 5.04194 7.18071
C 3.48371 5.32058 7.86114
C 9.80898 5.50353 8.04492
C 9.13444 6.1775 8.81024
C 11.9436 3.71588 5.74693
C 3.76999 4.79613 6.90634
C 4.64824 9.96327 7.62247
C 8.70965 5.68007 7.87279
C 8.34594 8.7973 9.05421
C 11.6509 9.79734 8.00637
C 2.90448 11.0555 7.53299
C 4.54903 9.13542 6.871
C 5.31833 9.89543 6.75266
C 8.56121 8.61883 10.1633
C 12.3244 10.6685 7.8278
C 2.33751 12.3475 4.94939
C 5.42949 14.1601 8.7641
C 7.73572 10.7613 6.79106
C 10.1435 13.4354 8.78611
C 12.346 10.0165 8.77858
C 3.01954 4.08427 7.43645
C 3.77051 4.267 8.22319
C 9.00038 4.04356 13.0098
C 9.32089 4.28299 11.9042
C 10.5187 4.25057 11.6944
C 2.75052 4.72524 8.31402
C 2.81898 3.6383 8.52964
C 8.13689 5.75272 8.82343
C 9.01571 5.09873 8.74364
C 9.93607 3.33767 12.0008
C 1.59643 6.30833 11.1102
C 5.09405 6.64254 11.8861
C 6.20682 6.83404 10.4378
C 10.5133 7.84475 11.4843
C 11.3594 7.13189 11.5653
C 1.33443 12.9753 10.3604
C 4.70724 7.5693 11.2555
C 7.61236 9.14182 9.94953
C 7.56167 9.90002 9.22245
C 12.8298 9.6769 7.84573
C 1.76 12.0964 11.004
C 5.23166 13.0837 9.03448
C 7.80034 10.4123 11.3091
C 10.1374 12.4656 9.34362
C 10.4209 13.3482 9.9548
C 2.50442 1.99109 9.15744
C 8.25889 3.93774 12.0809
C 8.95346 3.0809 12.3532
C 9.87927 3.23076 13.1009
C 10.0898 4.269 12.7549
C 1.42058 4.65016 14.2377
C 5.93964 6.18822 11.3145
C 5.15621 6.64866 10.8108
C 10.8844 8.23 12.6088
C 10.716 7.14618 12.4503
C 1.51053 7.35992 10.6686
C 5.37189 7.64265 10.4532
C 5.88203 7.30796 11.3878
C 11.5379 8.20322 11.6982
C 11.774 7.50311 12.5648
C 1.72976 12.0047 9.8322
C 5.25785 7.74592 12.2028
C 8.23963 9.41503 10.8402
C 8.60892 9.62567 9.82497
C 12.4895 7.50677 11.6506
C 2.44888 12.7162 10.3777
C 7.18907 9.64699 10.8191
C 7.81497 10.322 10.2163
C 12.3845 13.429 13.3539
C 11.342 13.7861 13.0156
125
Time step: 3
C 0.897899 3.56797 4.12992
C 1.30803 2.48718 4.34313
C 8.40977 4.69166 4.09873
C 9.43455 5.06441 4.35981
C 12.3664 2.78897 1.23934
C 0.715626 3.5732 3.06841
C 6.88358 5.44457 4.72792
C 7.72702 5.67596 4.09129
C 7.86228 5.14309 3.15361
C 10.3633 5.70704 4.48217
C 4.04516 8.76838 3.76156
C 5.00506 9.2613 3.28509
C 9.19831 6.53361 3.28391
C 10.1013 6.33023 2.71136
C 9.87645 5.573 3.45064
C 4.50883 8.43271 2.7173
C 4.25549 9.87935 3.83529
C 8.46188 7.37736 3.27935
C 12.0853 9.42545 0.522343
C 12.1518 9.94317 1.46567
C 2.17224 12.4745 3.5501
C 2.80893 13.2748 4.06745
C 6.72559 13.6893 5.30601
C 7.18407 12.7442 5.67785
C 11.1791 9.94646 0.891402
C 0.572413 2.6122 3.5768
C 4.58249 0.90871 7.1695
C 8.91131 4.71036 5.23775
C 10.1511 4.83545 5.22119
C 12.9293 3.58505 6.55169
C 1.62273 3.05946 3.40811
C 7.27225 4.66281 3.95185
C 7.80364 4.81828 5.01248
C 8.73857 5.61437 3.62423
C 12.4904 3.5869 5.53027
C 4.01834 9.40916 2.86142
C 4.87124 9.13284 4.3888
C 8.36804 6.54494 4.11769
C 9.34772 6.15382 4.27607
C 10.1923 6.58067 3.77135
C 3.37216 8.53873 2.85799
C 5.00447 8.26158 3.75773
C 8.03199 6.27807 3.10078
C 9.30545 7.26204 4.11545
C 9.99617 6.68962 4.91523
C 2.15673 12.5825 4.65295
C 3.03728 12.1604 4.17851
C 7.74075 13.2819 4.84215
C 6.76447 12.7097 4.66805
C 12.0844 11.1947 4.41957
C 2.65095 3.11826 7.31582
C 4.07726 1.47949 8.02619
C 8.57384 5.63308 4.71839
C 9.5322 5.7455 5.28927
C 13.0644 4.47306 5.8851
C 2.57867 3.88947 6.52273
C 3.00203 4.89769 6.7135
C 9.98994 4.98031 8.07196
C 9.76969 5.69665 8.90045
C 12.0593 4.30306 6.25503
C 3.47755 4.22139 6.00485
C 4.0117 10.4217 7.89844
C 9.02737 5.53116 8.00091
C 8.00569 9.47613 8.4999
C 12.7444 8.96359 8.41491
C 4.23306 11.3903 7.49626
C 4.06484 10.6269 6.75432
C 5.09579 10.5728 7.49716
C 7.91703 8.83567 9.44842
C 12.3587 9.95973 8.80429
C 3.14106 12.8546 5.06546
C 4.65984 0.473341 8.16219
C 8.80613 10.2648 8.62424
C 11.4818 14.4582 9.06446
C 13.2054 9.49946 9.32906
C 3.47741 3.26386 6.63627
C 3.83311 4.22195 7.04528
C 8.75961 4.30241 12.9743
C 9.31014 4.36417 12.0057
C 10.1063 3.59189 12.0407
C 2.85435 4.19874 7.52795
C 3.67805 3.3774 7.73308
C 8.67982 5.57994 9.06763
C 9.14668 4.64869 8.77786
C 9.12732 3.36878 12.4507
C 2.62922 6.68369 10.9708
C 5.36798 7.03061 11.4586
C 6.73048 7.38841 10.2222
C 10.4465 6.99994 10.7867
C 11.2316 6.82674 11.5614
C 0.600765 13.1928 10.3261
C 4.95308 7.58639 10.5982
C 7.20441 9.69993 9.2534
C 7.71146 10.5596 8.80842
C 13.2973 9.9071 8.22822
C 0.51142 12.1514 10.7153
C 5.44702 14.6529 8.08598
C 7.12919 10.2332 10.992
C 11.0404 13.437 9.37414
C 11.8556 13.8049 9.98086
C 3.53572 2.34023 7.35783
C 8.3065 3.93921 11.9883
C 8.13408 3.3711 12.9229
C 9.04718 3.33384 13.593
C 9.80996 4.08639 13.0231
C 1.23321 4.89326 13.8782
C 6.5161 7.03501 11.2974
C 5.79577 6.88293 10.3993
C 10.3222 8.11164 11.1657
C 10.1911 7.20117 11.8321
C 2.33893 6.40444 12.0201
C 5.7189 7.82233 9.7891
C 5.95768 7.88532 10.8641
C 11.3237 7.70044 10.8642
C 11.0626 7.84881 11.9494
C 0.717565 12.3297 9.61078
C 5.12378 8.12758 11.5237
C 7.70516 9.48055 10.3317
C 8.26901 9.95971 9.53369
C 12.0819 7.54581 11.7526
C 1.51461 12.6273 10.4769
C 6.62367 9.71569 10.1494
C 7.37932 10.5024 9.93982
C 10.9971 0.277113 14.4169
C 11.1956 14.4365 13.7198
125
Time step: 4
C 2.1331 4.0054 4.77898
C 2.59877 3.0943 5.15223
C 8.00516 4.67417 4.36108
C 9.14078 4.8027 4.22084
C 12.3004 2.18574 0.69793
C 1.51459 3.87369 3.90647
C 6.79517 5.46816 5.39148
C 7.61064 5.73943 4.66811
C 7.32159 5.39778 3.67316
C 10.1339 5.26978 4.1913
C 3.69374 9.00814 3.72802
C 4.51302 8.2684 3.31174
C 8.90342 6.45884 3.50655
C 9.67014 6.34181 2.71201
C 9.40978 5.42702 3.32739
C 3.43568 8.2063 3.01653
C 4.71024 9.31042 3.44938
C 8.38494 7.32873 3.99105
C 10.779 8.46073 0.0954364
C 10.8604 9.62935 0.215215
C 2.35257 12.2057 3.75483
C 2.19919 13.2385 3.5066
C 6.59205 12.6706 5.33111
C 7.51013 12.2519 5.86882
C 11.0663 8.88539 1.08257
C 1.61109 2.91768 4.62047
C 3.91926 1.96698 7.23532
C 8.85335 4.34555 5.18988
C 9.96734 4.30136 4.80245
C 12.2003 3.68118 5.83516
C 2.47969 3.15969 3.97881
C 6.94725 4.79536 4.54265
C 7.77532 4.84838 5.42651
C 8.42215 5.58709 3.88834
C 12.7395 4.07338 6.76814
C 4.06791 9.05011 2.61143
C 4.57237 8.66554 4.34976
C 8.44439 6.44962 4.68493
C 9.29213 5.90145 4.33994
C 10.0798 6.27013 3.72649
C 2.96953 9.2162 2.82248
C 3.76946 7.93568 4.07626
C 7.76401 6.44725 3.82152
C 9.42662 6.97622 4.36026
C 10.164 6.21136 4.88071
C 1.40417 12.6206 4.27194
C 2.48351 12.9999 4.56642
C 7.38749 13.4157 5.60411
C 7.58322 12.6766 4.79749
C 10.8833 11.0763 2.86838
C 2.70422 2.42755 5.99157
C 4.20434 3.00485 6.86921
C 8.56498 5.3941 4.95643
C 9.64022 5.24092 5.19788
C 13.1398 4.26179 5.71861
C 3.13718 4.00922 5.25881
C 3.21921 4.43007 6.26679
C 10.3617 5.95856 8.44535
C 9.20719 6.12178 8.57475
C 13.2452 3.23029 6.21841
C 4.23304 3.9841 6.31832
C 4.61181 10.7292 8.37015
C 9.75135 6.64771 7.74486
C 8.19639 9.7027 9.30441
C 12.9841 9.38122 7.73094
C 4.55526 10.5814 7.29123
C 4.31872 9.69737 8.01361
C 5.33595 10.0199 7.82636
C 7.76497 8.92918 9.97983
C 12.0616 9.47965 8.39161
C 1.65253 13.7115 4.43969
C 4.71887 2.60979 7.747
C 8.95374 10.3037 9.88554
C 12.5025 14.7949 10.1789
C 12.8964 8.85713 8.73168
C 3.47275 3.25243 6.01524
C 3.37768 3.69312 7.0971
C 8.94922 4.86471 12.961
C 9.53449 4.64691 12.0519
C 10.0316 3.66705 12.0443
C 2.53016 3.54839 6.36166
C 3.09747 2.6226 6.955
C 8.78314 6.06674 7.5435
C 9.68491 5.49612 7.69853
C 9.05956 3.74416 12.548
C 2.04956 7.02468 11.1755
C 6.06754 8.00332 11.4387
C 6.67039 8.88875 9.95338
C 10.3631 7.341 10.0556
C 10.5118 7.34305 11.2109
C 0.920893 13.0116 10.5716
C 5.1761 8.59541 11.0105
C 7.19104 9.84029 9.68955
C 7.91373 10.6782 9.7574
C 13.1572 9.96275 8.62295
C 14.8954 12.6604 10.2405
C 4.8536 2.05238 6.7167
C 6.46541 10.0834 11.3241
C 11.471 14.967 9.83285
C 11.9367 13.838 9.87893
C 3.93808 2.26771 6.1385
C 8.45093 4.49335 12.0081
C 8.13009 4.0934 13.0066
C 9.03881 4.02278 13.611
C 9.94564 4.27706 12.9799
C 1.22938 4.39011 13.5144
C 6.95994 8.24041 10.7289
C 5.89823 8.10596 10.3343
C 10.5975 8.44077 10.1072
C 9.74825 8.0427 10.7755
C 1.8323 6.33373 10.2692
C 5.56783 9.1117 10.0533
C 6.21222 8.99657 10.9994
C 11.291 7.68213 10.5204
C 10.7257 8.46089 11.2015
C 0.652128 12.903 9.47025
C 5.41478 9.73426 10.9353
C 7.18591 9.44353 10.7718
C 8.15109 9.84073 10.5105
C 11.4833 7.69679 11.6548
C 0.757773 11.9471 10.2491
C 6.29615 9.91603 10.2637
C 7.24239 10.4963 10.6393
C 12.0413 14.0239 13.7621
C 11.8736 13.6306 14.8264
125
Time step: 5
C 2.09472 2.97461 5.20688
C 3.16173 2.5313 5.06439
C 8.20321 4.88088 4.79833
C 9.3105 4.9264 4.79883
C 12.4047 1.84816 1.26227
C 1.53078 2.76306 4.28705
C 7.02492 5.9806 5.38109
C 7.78312 5.9058 4.65154
C 7.79039 5.24126 3.78774
C 10.4227 5.32563 4.8956
C 3.52427 9.13685 3.76008
C 4.42532 8.60985 3.29266
C 9.36364 6.41146 3.80086
C 10.3253 6.18943 3.24957
C 9.83104 5.44934 3.92062
C 3.43453 8.08723 3.39009
C 4.24894 9.70224 3.09278
C 8.89582 7.409 3.99341
C 10.5809 8.72031 14.25
C 11.5656 8.97612 14.6547
C 1.37116 11.5947 4.00588
C 1.41698 12.6681 3.84347
C 7.56096 13.6355 4.46339
C 7.15933 12.6184 4.83389
C 10.6577 9.01887 0.360383
C 2.26576 2.00945 4.73891
C 3.68068 2.22269 7.27994
C 8.7825 4.70396 5.7308
C 9.98899 4.44991 5.55637
C 11.7671 2.96915 6.36937
C 2.63468 2.95933 4.19749
C 7.14303 5.06372 4.6831
C 7.69801 5.20962 5.70654
C 8.73771 5.58846 4.16003
C 12.2595 3.60893 7.16251
C 3.58425 8.9688 2.64584
C 4.54276 9.35688 4.1169
C 8.64858 6.60389 4.67545
C 9.51695 5.97908 4.797
C 10.4563 6.35955 4.38078
C 2.63024 8.84778 3.22036
C 4.0864 8.30477 4.28991
C 8.15995 6.40332 3.73257
C 9.67311 7.04523 4.74676
C 10.2941 6.37089 5.47821
C 1.27291 12.3109 4.93608
C 2.25599 12.0906 4.4073
C 7.07067 13.4573 5.61395
C 8.10641 13.0992 5.27819
C 10.7934 10.9129 3.45394
C 2.42195 2.12981 5.82608
C 3.56834 3.28282 6.76439
C 8.62014 5.74505 5.35436
C 9.60437 5.4682 5.73874
C 12.729 3.39496 6.12709
C 3.03173 3.6167 5.02487
C 2.24217 3.93115 5.73707
C 10.3941 6.56073 9.78624
C 9.7596 6.30746 8.93416
C 12.6373 2.57028 6.89095
C 3.30217 4.12373 6.01827
C 7.20045 10.0938 9.29532
C 9.30967 6.83966 9.76784
C 8.33981 8.708 9.13201
C 12.5377 9.26529 7.06118
C 6.6102 10.179 8.39335
C 6.04532 10.1703 9.42861
C 6.52199 9.23815 9.01953
C 7.88879 8.09498 9.99571
C 11.5195 9.5519 7.38904
C 2.07223 13.113 4.84387
C 4.28602 3.20073 7.58565
C 9.18469 9.36627 9.74124
C 12.5746 13.6244 9.10253
C 12.158 8.92447 8.02398
C 2.89276 3.12246 5.94796
C 2.5249 3.75145 6.83764
C 9.43027 4.79877 12.9361
C 9.59016 4.69331 11.8426
C 10.0727 3.71011 11.5832
C 1.87792 3.01666 6.27922
C 2.71647 2.58174 6.90235
C 9.37759 7.21099 8.4618
C 10.463 7.06586 8.65996
C 9.24864 3.7542 12.3097
C 1.9133 7.02791 9.41017
C 5.63053 8.13436 11.3344
C 6.57447 8.43054 9.81727
C 8.71759 7.67942 9.20137
C 8.61936 7.39536 10.3603
C 0.707387 13.2886 10.6314
C 5.16308 8.97421 10.7627
C 7.44201 9.04165 9.62978
C 8.22734 9.75379 9.48114
C 12.336 10.0478 7.90183
C 14.5232 13.0474 10.7052
C 4.43356 2.59676 6.57186
C 6.79841 9.64039 11.1918
C 11.8825 14.4972 9.23177
C 11.7263 13.507 9.84579
C 3.53671 2.25721 6.13851
C 8.56279 4.74091 12.2578
C 8.51974 4.08275 13.0916
C 9.61241 3.79031 13.3522
C 10.2724 4.1493 12.5644
C 0.98489 3.71357 14.1147
C 6.53893 7.79331 10.7267
C 5.58274 8.07129 10.2262
C 9.44713 8.69555 8.90895
C 9.05988 8.34385 9.99464
C 1.4125 6.02925 9.78653
C 5.65832 9.06802 9.74648
C 6.2023 8.84886 10.7439
C 9.88809 7.75635 9.30879
C 10.0771 8.67405 9.85496
C 0.0438667 13.1501 9.7045
C 5.76126 9.89612 10.5562
C 7.23276 8.73529 10.6781
C 8.31138 9.04736 10.3119
C 9.82964 7.56566 10.3613
C 0.305457 12.2351 10.4019
C 6.61368 9.5146 10.0749
C 7.59113 9.79757 10.4496
C 10.4304 12.9571 13.8103
C 10.1443 13.2605 14.8274
125
Time step: 6
C 2.61714 3.08344 5.42226
C 3.67508 2.79341 5.70954
C 8.1308 4.95599 5.24006
C 9.28908 4.99249 5.13321
C 12.876 3.8983 1.83044
C 2.42748 2.95913 4.32382
C 6.98275 6.32443 5.67997
C 7.79635 6.02901 4.95759
C 7.64573 5.17302 4.28664
C 10.421 5.33577 5.08301
C 3.64496 9.27772 4.43618
C 4.17041 8.66444 3.6386
C 9.30651 6.2123 3.87702
C 10.0852 5.84775 3.1739
C 9.7392 5.26195 4.1528
C 3.08413 8.4929 3.89826
C 4.42347 9.7451 3.80825
C 8.82694 7.15383 3.79447
C 10.7046 8.51875 14.8911
C 11.4989 9.30582 14.583
C 0.997306 11.3933 4.82982
C 0.807959 11.6943 3.78296
C 7.45864 13.6644 5.0327
C 7.2456 12.6557 5.56371
C 11.3305 9.09626 0.619379
C 3.11112 2.21891 4.96381
C 3.3472 2.14776 7.7504
C 8.83315 5.00023 6.1487
C 10.0257 4.64218 5.86292
C 11.0432 2.24417 5.86476
C 3.43359 3.32245 4.70813
C 7.03004 5.299 5.25089
C 7.78836 5.59882 6.05565
C 8.69064 5.55751 4.46806
C 10.3813 2.82617 6.54718
C 3.36816 9.37456 3.34252
C 4.74509 8.968 4.54001
C 8.71609 6.67867 4.76684
C 9.56018 6.0129 4.93203
C 10.3976 6.15138 4.23893
C 2.61546 9.50079 4.13323
C 3.87243 8.23691 4.66174
C 8.15069 6.25839 3.84027
C 9.73267 7.02287 4.46955
C 10.4763 6.43904 5.34498
C 0.845093 12.5106 4.57333
C 1.78921 11.9647 4.20175
C 7.96137 13.3727 6.07017
C 8.23811 12.8267 5.12832
C 9.97247 11.2738 5.50481
C 2.71815 2.13268 5.97741
C 3.24984 3.2469 7.48949
C 8.70141 5.86735 5.52399
C 9.7215 5.70112 5.92103
C 11.077 3.32401 5.8459
C 3.385 3.88949 5.69069
C 2.31828 3.96243 6.08575
C 9.49443 6.44473 10.119
C 8.96243 6.57125 9.13476
C 11.5442 2.87027 6.71009
C 3.16288 4.12769 6.83905
C 7.20068 10.0699 9.17269
C 8.62978 7.26665 9.92662
C 8.71423 8.76758 8.88026
C 11.6845 8.37495 7.9848
C 6.31794 10.0894 8.45377
C 6.00016 9.75153 9.51745
C 6.67741 9.11381 8.87534
C 8.13199 8.18473 9.66005
C 11.0669 9.00166 7.20113
C 1.21261 12.7054 3.54906
C 4.27898 2.75813 7.52628
C 9.56631 9.21375 9.42213
C 13.0065 13.3569 8.41291
C 10.5397 8.44483 8.14263
C 2.95855 3.15755 6.42014
C 2.23582 3.52156 7.1604
C 9.55358 4.28767 12.7913
C 9.43198 4.85265 11.8178
C 9.4962 4.13232 10.9887
C 1.91711 2.89424 6.30794
C 2.53564 2.39219 7.06273
C 9.65514 7.21491 8.35082
C 10.0748 6.36449 9.11011
C 8.95435 3.85626 11.9306
C 0.710298 7.17724 10.2349
C 6.44632 7.63027 11.2251
C 7.06423 8.29795 9.52049
C 8.8067 7.66447 8.9024
C 8.53965 8.09608 10.6408
C 0.751388 13.0251 11.0678
C 5.57507 8.29148 10.6469
C 7.76234 9.14722 9.31025
C 8.57654 9.86182 9.27362
C 11.2664 9.39753 8.22095
C 14.9599 13.6918 11.448
C 4.00345 3.38481 6.63715
C 7.01188 9.52879 10.9324
C 11.9312 13.3449 8.82666
C 12.6044 12.4135 8.70992
C 3.60162 2.31522 6.72274
C 8.58325 4.8019 12.5392
C 8.62915 3.7411 12.9886
C 9.5345 3.17361 12.5999
C 10.0924 3.91239 11.9387
C 0.272381 3.27802 13.7689
C 7.43746 7.71073 10.3995
C 6.36576 7.58842 10.0684
C 9.78994 8.25035 8.87526
C 9.19487 8.22339 9.77185
C 1.60708 7.5887 9.7397
C 6.01383 8.63544 9.68109
C 6.65477 8.51235 10.581
C 9.69885 7.32291 9.47642
C 10.2515 8.18481 9.91552
C 14.9978 13.4327 10.3416
C 5.96851 9.34491 10.5639
C 7.68964 8.80045 10.4071
C 8.65326 9.11621 10.0268
C 9.50721 7.51597 10.5576
C 14.6788 12.6813 11.1445
C 6.89612 9.29026 9.89965
C 7.82897 9.84575 10.1243
C 10.694 12.6229 14.0543
C 10.2339 12.4766 13.0162
125
Time step: 7
C 2.48141 3.24365 5.46205
C 3.46618 2.71177 5.67915
C 8.77954 4.61196 4.49163
C 9.80108 4.73376 4.07757
C 12.4324 3.85902 2.67927
C 2.37331 3.29673 4.31032
C 8.14835 5.18651 6.14605
C 8.55179 5.55727 5.1683
C 8.01338 5.50152 4.20269
C 10.9369 5.04069 4.02133
C 3.40632 9.28152 4.68094
C 3.71234 8.49543 3.91721
C 9.69155 6.51826 4.04839
C 10.0499 6.70934 3.04503
C 9.98408 5.63827 3.40443
C 2.63056 8.63763 4.16183
C 4.22879 9.45859 3.94835
C 9.3515 7.21988 4.82764
C 10.4636 8.9401 0.664981
C 11.3648 9.2272 0.0131316
C 1.14755 12.0882 4.87442
C 0.353694 12.1607 4.07446
C 7.34909 13.245 6.35892
C 7.48968 12.5034 5.50114
C 11.4963 8.81378 1.09383
C 2.7244 2.36706 4.84813
C 3.22901 2.00506 7.73535
C 9.57304 4.01039 4.96961
C 10.5227 4.54239 4.9579
C 10.3658 4.04969 6.73306
C 3.33361 3.31456 4.81168
C 7.82545 4.77699 5.09659
C 8.77951 4.4658 5.57019
C 9.08613 5.5678 4.14249
C 10.3203 3.66033 5.68758
C 3.19405 9.4345 3.596
C 4.32112 8.69204 4.85341
C 9.45728 6.16632 5.08605
C 10.2312 5.6857 4.43446
C 10.8181 6.32352 3.74206
C 2.38585 9.68405 4.27653
C 3.35146 8.18283 4.93857
C 8.59576 6.47776 4.40522
C 10.4384 6.72402 4.83851
C 11.2714 5.99266 4.69802
C 1.45585 12.5986 3.98776
C 1.23185 11.4543 3.9512
C 7.83127 12.2207 6.58164
C 8.38981 13.0647 6.10606
C 8.40686 11.9472 5.66995
C 2.54964 2.206 6.02587
C 3.26578 3.08705 7.47215
C 9.51606 5.12204 5.05588
C 10.4894 5.49993 5.51671
C 10.9809 4.55041 5.92077
C 3.38113 3.87112 5.78439
C 2.31578 4.00197 6.2318
C 9.59295 6.43284 9.43494
C 9.10545 6.64267 8.41571
C 9.89209 4.63481 5.91795
C 3.26234 4.08369 6.89023
C 7.41254 10.1007 9.13001
C 8.70829 7.16565 9.37688
C 8.7861 8.82332 8.66736
C 11.4548 8.2785 7.90673
C 6.41292 10.1411 8.5361
C 6.06442 9.7164 9.49166
C 6.72516 9.13702 8.79593
C 8.18199 8.11483 9.2941
C 10.423 8.27151 7.53115
C 0.910475 12.0316 3.0904
C 4.2521 2.55486 7.42711
C 9.83034 9.09602 9.18752
C 12.1357 13.3169 7.40332
C 10.6745 7.67379 8.43606
C 2.9118 3.13027 6.45467
C 2.31817 3.54118 7.28995
C 8.90008 3.80522 13.1031
C 9.6164 4.6106 12.8843
C 10.2877 4.33013 12.0189
C 1.84257 3.01172 6.36311
C 2.42374 2.42845 7.11482
C 9.73998 7.39431 7.82404
C 10.3012 6.58095 8.36617
C 9.22493 3.98007 12.0239
C 14.6147 6.92535 10.3034
C 6.74904 7.34416 10.7717
C 7.11732 8.28479 9.31911
C 8.82987 7.74894 8.41172
C 8.70465 7.93301 10.255
C 14.9194 14.1375 11.5808
C 5.75595 8.0459 10.5267
C 7.80889 9.07369 9.09289
C 8.63438 9.88397 9.11566
C 10.7642 8.76518 8.61415
C 14.8267 13.6619 10.5027
C 3.98273 3.25289 6.55093
C 7.2223 9.23657 10.8748
C 11.9023 13.5511 8.49009
C 12.2069 12.5227 8.20286
C 3.43677 2.21239 6.67772
C 8.5745 4.71737 12.5202
C 8.14635 3.69735 12.2583
C 9.02371 2.96062 12.3325
C 9.98056 3.54021 12.7588
C 0.839269 1.59221 13.3411
C 7.603 7.52651 10.0577
C 6.39835 7.54014 9.75356
C 9.75763 8.34885 8.37679
C 9.25018 8.15861 9.36672
C 0.377106 6.19282 9.99089
C 6.14206 8.60635 9.60484
C 6.83939 8.34074 10.3813
C 9.76308 7.3494 8.93498
C 10.3424 8.1065 9.4342
C 0.828757 13.8098 10.8925
C 6.15744 9.20363 10.5015
C 7.85016 8.62802 10.1799
C 8.78935 9.01033 9.76401
C 9.62737 7.37361 10.0625
C 0.184575 13.0643 11.4917
C 7.02053 9.28827 9.80877
C 7.9987 9.74195 10.0098
C 11.2993 12.2934 13.8849
C 12.0901 12.3624 13.1845
125
Time step: 8
C 2.1096 3.45574 5.74536
C 3.28168 3.1734 5.7197
C 8.77319 4.60838 4.07035
C 9.8588 4.57258 3.88682
C 11.3379 5.37027 3.05289
C 1.79999 3.78757 4.73976
C 8.11141 5.21619 5.71794
C 8.60824 5.65615 4.79774
C 8.27462 5.58285 3.75032
C 11.014 4.75529 3.96631
C 3.23319 9.47272 4.52607
C 3.30858 8.78125 3.69565
C 10.0931 6.38145 3.98207
C 10.7992 6.43508 3.038
C 10.279 5.5289 3.34471
C 2.31729 9.11289 4.06421
C 4.08823 9.58617 3.76298
C 9.92063 7.06312 4.88424
C 10.3768 9.01577 0.356961
C 10.6442 9.66452 14.5058
C 1.68927 11.0066 4.37502
C 1.11098 11.1287 3.43221
C 7.71077 12.801 6.22375
C 8.88143 12.6984 6.49684
C 10.6041 8.51785 14.4036
C 2.57435 2.96363 4.84055
C 3.4487 1.53562 7.17179
C 9.47058 3.86205 4.62703
C 10.44 4.40732 4.81865
C 10.2026 3.6576 6.44363
C 2.81016 4.02794 5.14283
C 7.8647 4.85977 4.6398
C 8.6603 4.41287 5.25297
C 9.3633 5.5409 3.93651
C 10.3425 3.45253 5.3693
C 3.03433 9.82455 3.43939
C 4.09198 8.67477 4.44353
C 9.59694 6.02672 4.94947
C 10.3255 5.4185 4.42665
C 11.1653 5.9193 4.06035
C 2.36635 10.1934 4.25238
C 2.96073 8.37506 4.64783
C 8.97361 6.54844 4.22832
C 10.6804 6.24648 5.02524
C 11.2385 5.20922 5.00911
C 1.83019 11.9434 3.72793
C 2.27884 10.9022 3.38528
C 8.06054 11.9271 6.81934
C 8.10072 12.9697 7.24448
C 8.84564 12.2132 7.52857
C 2.50152 2.34321 5.80427
C 3.17095 2.61943 7.45875
C 9.45413 4.94721 4.83907
C 10.2478 5.28005 5.52878
C 10.8274 4.35765 5.854
C 2.98145 4.03777 6.29882
C 1.88251 3.74426 6.80397
C 9.65076 6.35551 9.36793
C 9.30555 6.73452 8.35929
C 9.7139 4.31533 5.65371
C 2.88532 3.72817 7.42483
C 7.69625 10.2465 9.26763
C 8.78301 7.17214 9.31901
C 8.94454 8.91368 8.7928
C 11.7194 8.16811 8.38512
C 6.82093 10.6069 8.58876
C 6.41201 10.1039 9.48955
C 7.02633 9.50267 8.75558
C 8.2092 8.10271 9.21189
C 10.7777 8.30791 7.80403
C 1.79708 11.5813 2.63896
C 4.18201 2.36941 7.19501
C 9.84905 9.1282 9.42017
C 12.4956 12.9988 8.21351
C 10.7621 7.66029 8.66075
C 2.70048 3.03765 6.60042
C 2.06644 2.9201 7.51714
C 8.85092 3.82688 13.1289
C 9.58043 4.58018 12.8304
C 10.1975 4.24058 11.9834
C 1.65902 2.69223 6.45541
C 2.46395 2.01318 6.86676
C 9.92378 7.51683 7.89151
C 10.4064 6.56873 8.55493
C 9.09592 3.92147 11.9424
C 0.794897 7.55057 10.4044
C 6.43437 7.45153 10.5125
C 7.19627 8.5113 9.27225
C 8.98922 7.81601 8.45961
C 8.58413 7.82605 10.197
C 14.9933 13.8802 11.0334
C 5.76387 8.33901 10.233
C 8.02702 9.21864 9.18604
C 8.81691 9.94156 9.33878
C 10.8281 8.80288 8.81751
C 0.794067 13.5162 10.2506
C 3.74669 3.2963 6.73088
C 7.32126 9.32811 10.8956
C 11.6159 13.6636 8.31766
C 11.4829 12.5755 8.52496
C 3.4483 2.28133 6.35708
C 8.52423 4.6907 12.5157
C 8.03289 3.71229 12.2484
C 8.88638 2.89396 12.3887
C 9.80132 3.49789 12.7341
C 0.0146137 3.0693 12.5051
C 7.43535 7.65132 9.91275
C 6.35694 7.83265 9.4794
C 9.9003 8.36413 8.56375
C 9.28339 8.19506 9.46491
C 1.02295 6.55132 9.9942
C 6.2362 8.99273 9.46694
C 6.83809 8.47126 10.3205
C 9.83522 7.37807 9.02751
C 10.4039 8.12399 9.60165
C 0.582498 14.6641 10.5109
C 6.23378 9.42895 10.4543
C 7.86363 8.63479 10.144
C 8.84031 9.02954 9.90467
C 9.62736 7.31975 10.0672
C 1.08155 13.9746 11.2179
C 7.15562 9.44055 9.83445
C 8.12308 9.78429 10.239
C 11.2079 13.4946 13.7296
C 12.3226 13.1883 13.4825
125
Time step: 9
C 2.60692 3.41092 5.34489
C 3.73289 3.14124 5.33345
C 9.0919 3.8974 4.46716
C 9.53637 4.68777 3.80687
C 11.0666 5.60675 3.06398
C 2.41901 3.87681 4.29037
C 8.84602 5.16898 5.79262
C 8.26481 5.56243 4.89005
C 8.44248 4.71522 4.0571
C 10.6596 4.82602 3.81093
C 3.22871 9.45384 4.78042
C 3.03974 8.83618 3.8236
C 9.77745 6.46822 4.17917
C 10.4818 6.58536 3.15502
C 9.9743 5.65842 3.38744
C 2.19952 9.2467 4.40904
C 3.93067 9.52361 3.92784
C 9.59679 6.98811 5.08966
C 10.4011 8.62422 14.2114
C 11.1529 9.37209 13.8537
C 1.6273 10.9882 4.69545
C 1.63081 11.1965 3.61184
C 8.12392 12.771 6.50984
C 8.49686 11.844 6.94797
C 11.4247 8.37375 14.3695
C 3.17015 3.01569 4.41203
C 3.83091 1.46204 6.79548
C 10.0893 3.46291 4.09692
C 10.0953 4.41695 4.69975
C 10.083 3.81164 6.33975
C 3.35537 4.06633 4.85876
C 8.28089 4.40763 5.19763
C 9.09841 3.17948 5.28325
C 9.01375 5.66674 3.99547
C 10.2129 3.5152 5.24503
C 2.8808 9.942 3.87542
C 3.82161 8.51717 4.48955
C 9.26656 5.94035 5.05449
C 9.99932 5.44702 4.42856
C 10.8708 5.99593 4.07414
C 2.41646 10.2165 4.85986
C 2.77362 8.44813 4.86042
C 8.67777 6.62905 4.46214
C 10.373 6.18236 5.12615
C 10.9257 5.14753 4.88658
C 2.59875 10.9686 4.03755
C 1.80306 10.1404 3.92882
C 7.38458 11.951 6.76343
C 7.77634 12.6479 7.58782
C 7.65703 11.5761 7.7207
C 2.96657 2.31962 5.28685
C 3.46002 2.46247 7.10324
C 9.16038 4.90438 4.81906
C 9.94918 5.19093 5.51438
C 10.7254 4.41769 5.65619
C 3.29513 3.96841 5.99547
C 2.25828 3.62131 6.35052
C 9.57152 6.52607 9.69109
C 9.30354 6.7889 8.68306
C 9.36685 4.18928 5.55528
C 3.20651 3.56926 7.03921
C 8.09405 10.4649 9.20756
C 8.86243 7.35302 9.50204
C 9.20955 9.00834 8.82105
C 11.6876 8.42575 8.3752
C 7.3816 10.7655 8.43464
C 6.63567 10.3127 9.22076
C 7.35593 9.65664 8.59934
C 8.42007 8.35615 9.29401
C 10.7029 8.38211 7.91749
C 2.36834 10.4864 3.05808
C 4.54235 2.33545 6.876
C 10.0632 9.23774 9.59227
C 12.8014 13.8372 7.64263
C 10.9209 7.76173 8.85856
C 3.07739 2.9194 6.1855
C 2.39558 2.74585 7.01325
C 8.4694 3.3728 12.4522
C 8.95733 4.29086 12.9546
C 9.93619 4.56276 12.5305
C 2.08375 2.55219 5.96169
C 2.85999 1.87915 6.33328
C 10.0801 7.49911 8.1607
C 10.4384 6.64938 8.76551
C 9.06719 4.2174 11.8787
C 2.41774 6.6543 9.37832